# vtk DataFile Version 5.1
vtk output
ASCII
DATASET UNSTRUCTURED_GRID
POINTS 19686 double
593630.03603 4827923.8377 950 593653.40088 4827880.364 950 593688.88876 4827875.8166 950 
593687.46004 4827857.3125 950 593687.98438 4827819.785 950 593704.66424 4827792.5695 950 
593710.65003 4827766.3154 950 593722.61382 4827714.9513 950 593743.65597 4827657.5379 950 
593761.18346 4827610.1618 950 593800.35146 4827543.4823 950 593862.9181 4827451.3592 950 
593922.07324 4827362.5547 950 594000.10136 4827290.8109 950 594051.10655 4827222.0548 950 
594068.87209 4827197.6546 950 594073.62756 4827179.2372 950 594095.48212 4827144.8081 950 
594108.10838 4827126.49 950 594107.9834 4827095.1184 950 594104.86065 4827077.1458 950 
594113.54784 4827059.339 950 594114.39564 4827038.6228 950 594123.59296 4827024.7443 950 
594145.1022 4827014.3934 950 594152.60424 4827000.5022 950 594136.0396 4826978.9751 950 
594143.03204 4826961.6999 950 594178.58123 4826912.3339 950 594183.90226 4826893.9244 950 
594199.18111 4826886.8519 950 594209.56377 4826868.5136 950 594232.28218 4826852.0259 950 
594249.95517 4826834.9008 950 594262.04869 4826814.3427 950 594280.74155 4826804.5191 950 
594289.45326 4826785.0243 950 594308.86863 4826763.4473 950 594333.59016 4826725.138 950 
594353.57094 4826703.5691 950 594373.76466 4826666.8736 950 594430.62318 4826622.2854 950 
594459.59813 4826601.3987 950 594481.42477 4826568.6478 950 594510.96496 4826547.2139 950 
594532.81566 4826512.7862 950 594584.95432 4826444.0387 950 594622.31945 4826426.0704 950 
594642.96598 4826437.5699 950 594662.08304 4826437.2842 950 594681.42183 4826421.8611 950 
594708.01931 4826409.9174 950 594734.99223 4826411.4202 950 594747.02017 4826435.684 950 
594769.25876 4826453.3604 950 594803.96033 4826465.059 950 594814.72823 4826459.0461 950 
594817.3289 4826433.867 950 594840.64199 4826455.4912 950 594888.09672 4826519.4796 950 
594923.9775 4826566.4978 950 594950.95973 4826606.6586 950 594975.95116 4826628.8624 950 
594990.37466 4826682.2977 950 595005.84703 4826701.5676 950 595007.78029 4826684.2216 950 
595013.55759 4826673.1062 950 595013.03057 4826631.076 950 595006.16104 4826600.1531 950 
595000.8673 4826576.5507 950 594991.52325 4826561.8443 950 594984.09614 4826530.3692 950 
594964.4517 4826488.0683 950 594950.18811 4826462.6505 950 594950.9436 4826449.2091 950 
594945.05286 4826428.3976 950 594943.24448 4826396.991 950 594946.84906 4826380.7905 950 
594976.94085 4826360.4884 950 595011.33148 4826354.2437 950 595013.82171 4826336.9167 950 
595017.46612 4826317.9176 950 595031.72821 4826303.5455 950 595052.77132 4826287.0367 950 
595074.79377 4826280.0617 950 595092.1447 4826285.9173 950 595104.13081 4826273.757 950 
595112.24863 4826256.4987 950 595148.02423 4826231.7901 950 595193.74927 4826218.9866 950 
595220.27694 4826212.0871 950 595245.80198 4826196.7534 950 595270.74589 4826182.5445 950 
595276.57198 4826168.0531 950 595287.91383 4826161.4937 950 595304.26997 4826157.8048 950 
595307.89936 4826139.9275 950 595307.00007 4826124.2186 950 595329.14282 4826109.4037 950 
595340.08696 4826091.0639 950 595358.83918 4826077.3228 950 595388.24891 4826065.4217 950 
595407.64621 4826046.0802 950 595421.41626 4826026.6587 950 595432.7983 4826017.3008 950 
595441.58588 4825992.2099 950 595459.88515 4825971.1755 950 595464.06422 4825953.8616 950 
595480.6922 4825931.6816 950 595488.86717 4825910.5032 950 595504.16549 4825902.3231 950 
595508.36067 4825883.8874 950 595537.89268 4825824.3451 950 595573.50462 4825811.4001 950 
595578.72662 4825800.2661 950 595564.8054 4825790.548 950 595556.65533 4825770.2592 950 
595561.43979 4825750.1546 950 595581.49938 4825724.1025 950 595609.04182 4825685.2602 950 
595618.84102 4825668.593 950 595641.4074 4825663.3049 950 595641.10579 4825645.3717 950 
595659.35055 4825627.7029 950 595673.56747 4825616.6973 950 595688.10404 4825583.2797 950 
595716.4742 4825565.7554 950 595739.15289 4825552.6268 950 595776.34228 4825547.5478 950 
595797.69887 4825548.9746 950 595802.88133 4825540.0841 950 595821.16691 4825520.1725 950 
595854.59239 4825502.7099 950 595880.27359 4825476.7389 950 595904.32347 4825446.8235 950 
595944.63583 4825419.9399 950 596001.71995 4825400.017 950 596019.24885 4825393.5473 950 
596036.43715 4825371.3766 950 596069.00996 4825374.6421 950 596077.06703 4825361.8718 950 
596085.26058 4825339.5725 950 596128.94154 4825313.2936 950 596178.49473 4825308.9604 950 
596178.12227 4825295.5029 950 596169.96535 4825276.3352 950 596178.49154 4825269.7368 950 
596194.89063 4825263.8067 950 596233.53375 4825235.7789 950 596272.02452 4825218.9575 950 
596315.4714 4825169.7044 950 596348.45328 4825105.1606 950 596356.53333 4825052.0343 950 
596356.0303 4825008.3156 950 596337.37541 4824976.1002 950 596316.90394 4824952.2678 950 
596329.32075 4824909.8565 950 596331.51518 4824874.5746 950 596325.1504 4824848.1453 950 
596341.66912 4824794.5736 950 596362.81666 4824770.7831 950 596357.04941 4824741.552 950 
596375.48965 4824671.7564 950 596398.34969 4824646.3022 950 596374.42142 4824628.5851 950 
596379.30565 4824601.7508 950 596376.21174 4824582.089 950 596357.66824 4824542.0327 950 
596347.30396 4824480.2215 950 596344.41089 4824446.555 950 596324.0101 4824417.6804 950 
596304.30312 4824380.4069 950 596299.60149 4824355.1124 950 596274.07253 4824330.6411 950 
596280.76489 4824295.9902 950 596247.91889 4824271.9806 950 596242.81242 4824236.0274 950 
596227.185 4824227.3944 950 596221.3362 4824203.772 950 596199.27043 4824173.1855 950 
596190.81171 4824135.5182 950 596189.92212 4824119.2428 950 596181.67539 4824105.6725 950 
596181.63193 4824069.803 950 596187.08106 4824042.4102 950 596188.84598 4823998.1577 950 
596194.88455 4823969.096 950 596189.04828 4823905.1061 950 596206.15726 4823849.8651 950 
596208.03486 4823797.1941 950 596208.67407 4823713.1244 950 596195.98593 4823617.0888 950 
596186.04675 4823572.1799 950 596178.79355 4823550.6703 950 596180.71397 4823527.7035 950 
596162.63173 4823485.033 950 596158.23864 4823458.4101 950 596163.04762 4823428.3532 950 
596166.98322 4823403.438 950 596183.98128 4823383.0756 950 596202.50264 4823367.4782 950 
596217.31521 4823360.9588 950 596229.48965 4823372.2305 950 596245.82864 4823369.6876 950 
596283.91354 4823349.2277 950 596309.52558 4823338.8866 950 596335.25454 4823319.8383 950 
596375.53177 4823285.1362 950 596408.52797 4823259.0499 950 596421.90354 4823241.8018 950 
596446.45734 4823221.9373 950 596452.32427 4823201.0046 950 596482.76227 4823159.0302 950 
596507.66961 4823114.5994 950 596523.013 4823071.2086 950 596549.4073 4823033.5309 950 
596557.96428 4823019.3908 950 596561.03026 4823000.0064 950 596574.52074 4822974.829 950 
596598.39594 4822946.635 950 596612.31665 4822919.0867 950 596646.09348 4822866.4526 950 
596666.62383 4822850.0967 950 596687.75322 4822819.0754 950 596731.20446 4822757.8609 950 
596762.13906 4822709.1522 950 596797.418 4822662.8833 950 596829.20621 4822637.9701 950 
596881.59626 4822619.2971 950 596948.77075 4822595.6837 950 597004.13805 4822591.3288 950 
597076.87592 4822595.9566 950 597109.03323 4822600.3761 950 597116.00911 4822613.5626 950 
597128.65717 4822618.8997 950 597145.2383 4822628.2595 950 597160.3061 4822631.6433 950 
597162.46541 4822647.1374 950 597175.20183 4822674.2817 950 597179.71771 4822692.187 950 
597193.22838 4822720.5311 950 597195.18928 4822750.2854 950 597201.49701 4822781.7023 950 
597209.09211 4822806.7838 950 597210.94145 4822843.6792 950 597220.72991 4822881.8782 950 
597238.48263 4822920.1925 950 597259.44399 4822956.1761 950 597287.83116 4823000.9874 950 
597310.01623 4823035.0005 950 597328.63778 4823067.3735 950 597362.18991 4823113.0599 950 
597391.05446 4823152.7132 950 597416.68438 4823195.8967 950 597439.76315 4823222.7916 950 
597486.34576 4823247.2619 950 597540.15014 4823267.8606 950 597572.59261 4823280.2179 950 
597592.94313 4823275.7592 950 597625.07026 4823282.5691 950 597654.18554 4823277.0495 950 
597694.03187 4823272.4748 950 597717.48066 4823274.4044 950 597729.32399 4823280.5198 950 
597740.79685 4823257.6924 950 597761.03795 4823260.7641 950 597777.90869 4823249.5126 950 
597807.8412 4823242.8169 950 597839.40541 4823233.368 950 597871.44642 4823218.372 950 
597908.78631 4823195.1333 950 597928.53074 4823177.981 950 597950.12359 4823170.3645 950 
597979.87251 4823148.6039 950 598008.056 4823125.6209 950 598046.22899 4823099.6179 950 
598067.53641 4823084.4661 950 598081.81237 4823060.1028 950 598103.8791 4823047.7393 950 
598116.82092 4823032.8654 950 598174.35637 4822988.906 950 598234.89135 4822929.9391 950 
598276.78981 4822894.0721 950 598346.02821 4822838.3994 950 598379.92706 4822805.9927 950 
598409.85914 4822771.9396 950 598429.7223 4822746.8591 950 598449.12583 4822726.1374 950 
598467.92807 4822718.8816 950 598486.54437 4822724.3088 950 598509.83808 4822736.9364 950 
598525.92383 4822751.8355 950 598548.43495 4822763.2742 950 598568.40977 4822784.5733 950 
598580.37788 4822809.7207 950 598594.47826 4822825.0019 950 598604.82352 4822851.714 950 
598621.14974 4822877.7142 950 598634.7319 4822901.308 950 598651.01709 4822930.0848 950 
598645.39334 4822960.9281 950 598648.02868 4822998.2245 950 598661.91091 4823027.7658 950 
598676.7149 4823049.0005 950 598693.24052 4823061.9291 950 598676.24954 4823026.7879 950 
598676.58146 4823004.1982 950 598683.17933 4822988.4434 950 598685.02697 4822971.0192 950 
598695.03427 4822966.8117 950 598707.24976 4822974.5228 950 598728.25038 4822980.3746 950 
598762.65005 4822994.7548 950 598797.59683 4822998.8458 950 598832.75377 4822988.6546 950 
598872.6903 4822978.1451 950 598902.10105 4822980.1667 950 598926.86662 4822973.3887 950 
598949.87871 4822950.7332 950 598977.59452 4822932.9127 950 599017.93494 4822895.0499 950 
599053.65796 4822873.382 950 599092.83918 4822860.4743 950 599131.79002 4822862.6376 950 
[...]
CELL_DATA 11
SCALARS Elev double
LOOKUP_TABLE default
950 800 900 700 750 1500 1300 1000 1400 
800 700 
