<?xml version="1.0"?>
<VTKFile type="UnstructuredGrid" version="0.1" byte_order="LittleEndian" header_type="UInt32" compressor="vtkZLibDataCompressor">
  <UnstructuredGrid>
    <Piece NumberOfPoints="290" NumberOfCells="290">
      <PointData Scalars="Elev">
        <DataArray type="Float64" Name="Elev" format="ascii" RangeMin="651.236" RangeMax="1438.321">
          976.579 904.403 965.698 694.67 1173.053 826.74
          964.753 852.465 884.499 870.631 922.508 1085.667
          1104.9 877.702 1014.222 697.809 697.809 869.137
          943.417 787.999 1233.007 834.42 669.676 781.903
          662.422 871.484 714.238 823.692 771.266 696.62
          688.299 871.362 754.654 753.77 677.662 735.513
          740.054 738.53 758.129 742.462 762.732 844.54
          789.92 706.801 890.9 775.96 686.105 885.322
          721.797 805.495 907.999 860.389 1125.169 741.121
          958.047 1047.018 674.431 794.522 736.519 672.236
          777.941 897.301 733.349 721.157 730.301 721.157
          966.246 970.331 687.659 837.865 773.765 744.261
          951.525 688.421 841.675 948.446 1293.541 770.443
          837.895 849.63 771.479 800.009 786.14 730.301
          651.358 714.085 743.133 779.221 779.221 651.236
          854.812 944.209 1023.457 1022.421 814.669 946.008
          686.135 721.157 670.316 1154.613 705.185 686.928
          821.07 731.276 876.391 957.956 883.829 851.032
          786.628 761.329 958.2 711.617 924.824 778.612
          1438.321 1358.25 1093.988 707.197 738.652 750.479
          962.376 915.68 745.968 841.614 694.334 823.478
          1073.14 823.996 725.79 698.937 771.906 1150.407
          898.52 999.317 883.188 929.823 690.006 840.273
          929.762 933.176 930.585 874.593 1015.075 1014.283
          788.335 674.583 970.3 876.971 691.347 673.395
          702.229 739.902 986.699 816.072 979.018 835.03
          863.925 809.915 689.976 913.821 840.76 816.925
          1052.2 862.188 960.333 763.707 1005.779 710.245
          686.318 764.164 824.819 779.983 826.526 917.661
          960.973 654.832 783.793 1012.302 873.222 847.435
          919.947 728.868 793.425 745.785 741.121 671.81
          757.885 815.95 801.319 744.108 820.826 680.253
          774.619 820.613 792.571 929.335 821.863 818.144
          762.335 837.164 813.206 762.091 791.291 839.145
          734.019 793.852 833.049 859.902 806.988 744.565
          743.438 761.177 782.3 890.046 777.636 817.931
          697.687 878.86 775.777 740.573 826.008 829.33
          819.79 859.841 725.424 760.293 714.329 811.713
          760.506 774.009 750.448 813.572 830.428 696.041
          698.724 829.452 752.765 688.726 705.46 739.323
          781.782 806.623 770.443 781.721 764.103 764.225
          819.79 819.059 694.731 885.871 754.38 861.151
          873.74 880.201 853.562 869.046 828.081 828.446
          850.849 787.573 834.786 744.779 825.185 792.175
          793.425 901.263 802.081 845.363 826.557 813.877
          791.809 989.015 869.625 845.515 829.848 830.123
          788.396 670.225 670.499 989.32 1007.73 768.431
          722.315 817.687 910.102 684.733 746.181 803.819
          1037.143 928.969
        </DataArray>
      </PointData>
      <CellData Scalars="Elev">
        <DataArray type="Float64" Name="Elev" format="ascii" RangeMin="651.236" RangeMax="1438.321">
          976.579 904.403 965.698 694.67 1173.053 826.74
          964.753 852.465 884.499 870.631 922.508 1085.667
          1104.9 877.702 1014.222 697.809 697.809 869.137
          943.417 787.999 1233.007 834.42 669.676 781.903
          662.422 871.484 714.238 823.692 771.266 696.62
          688.299 871.362 754.654 753.77 677.662 735.513
          740.054 738.53 758.129 742.462 762.732 844.54
          789.92 706.801 890.9 775.96 686.105 885.322
          721.797 805.495 907.999 860.389 1125.169 741.121
          958.047 1047.018 674.431 794.522 736.519 672.236
          777.941 897.301 733.349 721.157 730.301 721.157
          966.246 970.331 687.659 837.865 773.765 744.261
          951.525 688.421 841.675 948.446 1293.541 770.443
          837.895 849.63 771.479 800.009 786.14 730.301
          651.358 714.085 743.133 779.221 779.221 651.236
          854.812 944.209 1023.457 1022.421 814.669 946.008
          686.135 721.157 670.316 1154.613 705.185 686.928
          821.07 731.276 876.391 957.956 883.829 851.032
          786.628 761.329 958.2 711.617 924.824 778.612
          1438.321 1358.25 1093.988 707.197 738.652 750.479
          962.376 915.68 745.968 841.614 694.334 823.478
          1073.14 823.996 725.79 698.937 771.906 1150.407
          898.52 999.317 883.188 929.823 690.006 840.273
          929.762 933.176 930.585 874.593 1015.075 1014.283
          788.335 674.583 970.3 876.971 691.347 673.395
          702.229 739.902 986.699 816.072 979.018 835.03
          863.925 809.915 689.976 913.821 840.76 816.925
          1052.2 862.188 960.333 763.707 1005.779 710.245
          686.318 764.164 824.819 779.983 826.526 917.661
          960.973 654.832 783.793 1012.302 873.222 847.435
          919.947 728.868 793.425 745.785 741.121 671.81
          757.885 815.95 801.319 744.108 820.826 680.253
          774.619 820.613 792.571 929.335 821.863 818.144
          762.335 837.164 813.206 762.091 791.291 839.145
          734.019 793.852 833.049 859.902 806.988 744.565
          743.438 761.177 782.3 890.046 777.636 817.931
          697.687 878.86 775.777 740.573 826.008 829.33
          819.79 859.841 725.424 760.293 714.329 811.713
          760.506 774.009 750.448 813.572 830.428 696.041
          698.724 829.452 752.765 688.726 705.46 739.323
          781.782 806.623 770.443 781.721 764.103 764.225
          819.79 819.059 694.731 885.871 754.38 861.151
          873.74 880.201 853.562 869.046 828.081 828.446
          850.849 787.573 834.786 744.779 825.185 792.175
          793.425 901.263 802.081 845.363 826.557 813.877
          791.809 989.015 869.625 845.515 829.848 830.123
          788.396 670.225 670.499 989.32 1007.73 768.431
          722.315 817.687 910.102 684.733 746.181 803.819
          1037.143 928.969
        </DataArray>
      </CellData>
      <Points>
        <DataArray type="Float64" Name="Points" NumberOfComponents="3" format="ascii" RangeMin="4814395.17313477" RangeMax="4906005.871679754">
          575546.6288341067 4820354.913615939 976.579 564600.366581897 4807827.447421121 904.403
          558944.8434036992 4789663.819913369 965.698 519259.0061591667 4810958.617480122 694.67
          585351.1502703554 4811459.503098121 1173.053 527291.1038314103 4806228.485512365 826.74
          564179.0274308776 4833887.76680175 964.753 547038.6194724041 4850910.958726148 852.465
          547960.1820361946 4852502.508133381 884.499 547508.4994974532 4853481.133320718 870.631
          534910.8708374217 4869167.785623103 922.508 587050.7289972554 4807010.973418219 1085.667
          570675.6663378049 4829074.984259988 1104.9 552655.3206136271 4797685.469743745 877.702
          587998.4536677193 4798257.404578314 1014.222 526151.0981061019 4859343.82403646 697.809
          526126.1884158477 4859345.949469122 697.809 565975.3855351114 4829672.284082638 869.137
          582302.5213907709 4785999.686459647 943.417 549787.9932304956 4862444.756359138 787.999
          567079.178266783 4838486.429209747 1233.007 541340.9107772605 4848081.213612712 834.42
          492876.8650916256 4838036.50845206 669.676 515008.88927926525 4828836.562793653 781.903
          503859.1648756549 4866815.517810321 662.422 549796.3110594817 4797261.68909648 871.484
          531986.3569276349 4800156.219664833 714.238 530538.3225405109 4853147.551726399 823.692
          532663.0468969877 4843994.325514893 771.266 538585.7795430928 4793923.0612597065 696.62
          509472.741369067 4841719.8220346235 688.299 554140.6266005749 4804557.88165773 871.362
          531961.2773586874 4823939.25077557 754.654 534633.5964156295 4826126.224909571 753.77
          494106.9214649384 4843279.475532294 677.662 514272.3148573151 4835681.003983038 735.513
          506496.09033274953 4836099.622221633 740.054 507523.0716358664 4836336.266509896 738.53
          513722.355658603 4848308.834426097 758.129 506289.4243133496 4860374.9609529255 742.462
          521482.88428196544 4815630.469326646 762.732 553849.0067019517 4818457.071813874 844.54
          520065.26873753546 4856731.018809398 789.92 519263.0541005313 4863621.3312545065 706.801
          558924.1168249819 4813254.9352157945 890.9 519277.69826567493 4851093.10069971 775.96
          501302.0986038273 4855155.601593613 686.105 561874.4151325561 4802969.203808184 885.322
          533768.284914938 4853942.298749433 721.797 514335.58437425544 4814220.557664997 805.495
          553107.5367192 4782517.340424978 907.999 550780.0915579777 4810415.121070847 860.389
          581068.9555040156 4814441.073301451 1125.169 510566.49372442934 4835938.778100517 741.121
          584458.8838033541 4790644.602518698 958.047 574922.2879803481 4813383.3401716165 1047.018
          497900.58774873667 4837067.256955004 674.431 552856.074957513 4840297.403591844 794.522
          534147.9489456797 4796869.582869849 736.519 509358.53934161377 4877105.237389244 672.236
          535930.2536117411 4817356.229116239 777.941 553019.0652769839 4793660.770314158 897.301
          534145.8385450521 4797271.826224697 733.349 540253.6752524386 4858014.869636938 721.157
          534447.3731031789 4860249.575833905 730.301 540253.6752524386 4858014.869636938 721.157
          575772.5551596165 4792808.044292243 966.246 578130.7235601996 4799079.952411114 970.331
          493897.9535841711 4842672.621901372 687.659 529646.3307767258 4803731.390769968 837.865
          521501.629186279 4855332.742352744 773.765 533337.2106465085 4863559.644874873 744.261
          584879.7017413876 4788636.797033085 951.525 522161.42448545445 4808987.251793639 688.421
          531833.127473906 4805088.364664307 841.675 588743.2059393328 4785668.011905557 948.446
          579553.820011901 4829912.357067357 1293.541 548261.3891223669 4838023.15969601 770.443
          565322.3857098888 4830334.533161628 837.895 542570.2425480324 4801932.758552196 849.63
          542604.7022228953 4828998.704186625 771.479 509262.25638877926 4854826.176157069 800.009
          538241.3647795407 4842714.823484882 786.14 520016.7010390709 4843230.247721572 730.301
          504477.05300983315 4879960.151073515 651.358 550781.96752842 4787397.507412517 714.085
          531256.5609789407 4829265.696737926 743.133 536329.6899092946 4820178.793034454 779.221
          536329.6899092946 4820178.793034454 779.221 504482.6258696718 4879999.023467477 651.236
          547578.0719610984 4793945.246249491 854.812 563672.7520709364 4813686.883010891 944.209
          572396.215472714 4814441.54125363 1023.457 576242.5107410761 4809090.770881914 1022.421
          562236.6230474354 4831580.254853688 814.669 546163.7594382002 4859218.6838071095 946.008
          494898.80884126335 4839635.43218502 686.135 513584.0038658919 4864836.771633652 721.157
          498495.393164148 4847859.613586589 670.316 554976.1496159402 4850487.51073554 1154.613
          520783.3788768258 4809267.730947554 705.185 509519.85267112433 4870053.401239073 686.928
          538648.7531652938 4863269.263204734 821.07 531625.7389756746 4802109.251674411 731.276
          560350.0908325848 4836993.114279529 876.391 561169.256865446 4838018.7554030055 957.956
          545297.1552440248 4807871.606908328 883.829 540372.2537157781 4809305.237541013 851.032
          540903.78587453 4794461.958975124 786.628 520853.5115512533 4826355.217438194 761.329
          569959.5000929894 4807197.812968853 958.2 521286.2155591351 4835921.550317761 711.617
          561972.5890432488 4840497.396407731 924.824 545478.4032229292 4833268.084259518 778.612
          574051.5358018603 4828948.039847636 1438.321 559734.5257155395 4854145.4015007 1358.25
          593207.687726164 4802552.2029036125 1093.988 502675.3587918181 4851885.3771441225 707.197
          530581.0768038162 4834320.73521669 738.652 535464.5926542067 4835170.051190291 750.479
          557281.4389147067 4787017.42091295 962.376 554846.101360333 4791831.471428851 915.68
          504581.72394983174 4837208.21382099 745.968 544366.1462266592 4795745.0551891085 841.614
          527305.3996909918 4861102.229263243 694.334 564358.2164166693 4827682.0475982865 823.478
          588889.1751273464 4804617.351729291 1073.14 555689.2223913867 4842371.124606894 823.996
          515018.415444195 4818799.324017371 725.79 529935.0347295573 4802407.95946169 698.937
          522865.7955466412 4850902.096354803 771.906 571292.1864199631 4828891.13081706 1150.407
          549317.6587112766 4800081.246912812 898.52 584819.1274545987 4798654.000818854 999.317
          550896.0682331824 4844972.635087222 883.188 543864.0721254798 4865046.653075228 929.823
          532434.8132227017 4798791.345350848 690.006 525486.8596115276 4819069.859412729 840.273
          568568.1594614158 4819942.549812796 929.762 569075.7272025363 4820385.369112757 933.176
          568655.684391963 4819744.180147808 930.585 551008.5645894991 4844821.664060822 874.593
          585824.418988257 4800147.735193916 1015.075 585879.4955743301 4799959.603679461 1014.283
          525697.3438666257 4855536.454964633 788.335 497224.62989354634 4852910.81827709 674.583
          574810.4180661106 4803907.507131209 970.3 559918.6546956069 4843292.550032985 876.971
          536591.4746691091 4794005.50996738 691.347 516757.1571519641 4869943.599568808 673.395
          497870.0134387204 4841037.177511621 702.229 510505.2005948268 4836113.499466954 739.902
          580710.6477779767 4800602.485462287 986.699 537580.0497541956 4805251.957112246 816.072
          561594.6799560726 4837698.001321646 979.018 534177.4144193147 4805262.864118635 835.03
          556360.7241714769 4803921.758280568 863.925 534171.0827660009 4849223.1138303615 809.915
          504984.1235699039 4832456.52071512 689.976 551185.6764372652 4785114.1618184615 913.821
          555451.7293787423 4841301.979714383 840.76 555442.8756126332 4841708.867652969 816.925
          588372.2317968165 4801733.151755314 1052.2 557184.2556568328 4808454.233985649 862.188
          584857.1120608796 4791053.318387064 960.333 509933.87600550655 4863604.4523412045 763.707
          564461.4821096036 4791593.413769699 1005.779 520476.1393176625 4835456.110825391 710.245
          494892.5546390639 4838833.440909783 686.318 524823.0138295665 4867004.6324428525 764.164
          524492.0897828675 4807692.152621781 824.819 540591.1675822681 4853574.376109718 779.983
          564629.8208547664 4829751.802615696 826.526 561907.3122232083 4813475.169859061 917.661
          575500.4352052752 4794458.160844469 960.973 505233.810742903 4870394.380353991 654.832
          512109.75231886347 4831305.140161742 783.793 559463.7016816484 4848198.3272082405 1012.302
          550449.7721414795 4847660.028723852 873.222 561672.5831397948 4825991.098344551 847.435
          552738.7932216406 4787969.397535763 919.947 516957.09502622706 4824403.010156719 728.868
          541042.701316452 4817707.555483452 793.425 528273.3923246277 4866622.280058903 745.785
          510566.49372442934 4835938.778100517 741.121 516506.4514504005 4870849.3996852245 671.81
          537710.0891361749 4829638.349121756 757.885 544058.9060663701 4826604.778895938 815.95
          540499.5594367724 4827088.302740753 801.319 524612.9179507021 4831644.282335348 744.108
          547213.4347892695 4823343.362232358 820.826 521342.7643003256 4810192.031069425 680.253
          540722.2577796825 4822003.840576888 774.619 544253.4514564789 4814416.8065037625 820.613
          529623.2456092074 4817524.680636131 792.571 563799.8641870302 4812127.057135574 929.335
          553084.840589392 4823356.488170405 821.863 554055.5729050882 4827174.612310595 818.144
          539318.8128141293 4830511.425498169 762.335 526044.0958116531 4815113.801517976 837.164
          561057.1157274145 4833933.271023118 813.206 518229.75630320766 4829011.479078678 762.091
          521165.63650627376 4820607.264010521 791.291 557154.539918291 4824528.499911966 839.145
          532763.4470338819 4838646.03742725 734.019 550516.6100941378 4834078.570757412 793.852
          551014.8710301891 4814782.399092413 833.049 553168.3080556387 4808054.989863822 859.902
          534851.4994229018 4815401.226641282 806.988 521433.64872003894 4845501.472156286 744.565
          511829.98262822157 4848183.150824711 743.438 526043.0130373486 4845807.88045603 761.177
          526640.5598357084 4849018.791609677 782.3 558930.661109246 4818956.524330453 890.046
          521191.0185012348 4829627.139928548 777.636 547899.3298650916 4818412.018776831 817.931
          503898.0481672176 4849617.056152053 697.687 562106.802985395 4820728.272801413 878.86
          526427.1726674223 4826159.733398485 775.777 524046.34240553214 4839601.744879739 740.573
          531764.8227441623 4812186.806528178 826.008 566504.2224593639 4828350.978435757 829.33
          547224.7170824178 4819653.904614454 819.79 540959.4876443415 4805110.548366536 859.841
          525064.9669755718 4833540.844507979 725.424 527576.4909952888 4824806.964571769 760.293
          516849.1833731636 4842261.291521426 714.329 532740.8624589882 4811102.472811116 811.713
          531210.1993359508 4843919.840986039 760.506 544048.07072161 4833842.065462778 774.009
          534416.6975310446 4830540.482717149 750.448 536115.4563511055 4809422.433328275 813.572
          526427.2986018216 4810432.752828295 830.428 508697.8659613374 4828190.236939861 696.041
          501711.34533854335 4837676.678585771 698.724 554413.766033317 4823552.239139448 829.452
          541107.1976792038 4837394.796734558 752.765 502714.9933558498 4844063.856533205 688.726
          508724.32535137614 4846141.727795976 705.46 498811.8883670762 4828104.525964817 739.323
          531348.2719322189 4815744.954180394 781.782 554520.3423526415 4832500.276859182 806.623
          538790.8457955391 4799022.873278551 770.443 528410.5872010591 4847431.08111174 781.721
          540873.8014608116 4832772.910213941 764.103 540836.8010478511 4832822.521075517 764.225
          541131.5617129239 4812659.716104344 819.79 562877.4768818693 4832542.783185427 819.059
          512377.8162354105 4839610.673778414 694.731 545836.1168732321 4804885.009268633 885.871
          521469.6361946129 4843351.254204802 754.38 570143.5103732009 4823389.920017079 861.151
          566107.660444414 4829596.948755032 873.74 565986.2500188887 4829715.710729859 880.201
          565817.7734311917 4829763.3689217 853.562 565998.1965827394 4829641.738340811 869.046
          564846.5306921767 4829663.484628677 828.081 564882.7373093882 4829650.058543029 828.446
          567741.7963337102 4827678.3876463175 850.849 555360.5231638914 4836548.757461534 787.573
          567223.2331616452 4828203.872188666 834.786 526183.1778961602 4836894.852726754 744.779
          566046.2223249155 4828019.346533894 825.185 550041.6303718872 4830216.192173374 792.175
          550401.628804335 4834236.309589736 793.425 569690.3899649364 4821683.58872432 901.263
          543827.7416273801 4842852.8073565485 802.081 544090.4503090081 4845979.878546266 845.363
          559962.4826438546 4829977.754670945 826.557 557123.6319205076 4832874.291697702 813.877
          529933.5294455555 4816566.772523256 791.809 581649.7304785477 4799700.8600494545 989.015
          542397.162648951 4805692.297482474 869.625 565596.9579471502 4829915.149496713 845.515
          565109.045927876 4830301.363517934 829.848 565109.54215097 4830250.275110784 830.123
          529441.642102635 4821798.561652433 788.396 516259.8865471382 4871982.798783823 670.225
          516299.4831891657 4871858.494314749 670.499 571955.7725295889 4811878.310676787 989.32
          568137.4135354212 4817661.451070774 1007.73 531090.2696649198 4819763.242133636 768.431
          520066.85836624505 4862820.917332277 722.315 513228.6595538519 4857526.773734592 817.687
          555008.5026644513 4844128.610777327 910.102 517406.1584755312 4815217.987808859 684.733
          523634.271791447 4845807.671125523 746.181 513871.4100776971 4852111.318755895 803.819
          582688.80528093 4804231.267459997 1037.143 566367.5373931424 4809487.847134344 928.969
          <InformationKey name="L2_NORM_RANGE" location="vtkDataArray" length="2">
            <Value index="0">
              4814395.1731
            </Value>
            <Value index="1">
              4906005.8717
            </Value>
          </InformationKey>
        </DataArray>
      </Points>
      <Cells>
        <DataArray type="Int64" Name="connectivity" format="ascii" RangeMin="0" RangeMax="289">
          0 1 2 3 4 5
          6 7 8 9 10 11
          12 13 14 15 16 17
          18 19 20 21 22 23
          24 25 26 27 28 29
          30 31 32 33 34 35
          36 37 38 39 40 41
          42 43 44 45 46 47
          48 49 50 51 52 53
          54 55 56 57 58 59
          60 61 62 63 64 65
          66 67 68 69 70 71
          72 73 74 75 76 77
          78 79 80 81 82 83
          84 85 86 87 88 89
          90 91 92 93 94 95
          96 97 98 99 100 101
          102 103 104 105 106 107
          108 109 110 111 112 113
          114 115 116 117 118 119
          120 121 122 123 124 125
          126 127 128 129 130 131
          132 133 134 135 136 137
          138 139 140 141 142 143
          144 145 146 147 148 149
          150 151 152 153 154 155
          156 157 158 159 160 161
          162 163 164 165 166 167
          168 169 170 171 172 173
          174 175 176 177 178 179
          180 181 182 183 184 185
          186 187 188 189 190 191
          192 193 194 195 196 197
          198 199 200 201 202 203
          204 205 206 207 208 209
          210 211 212 213 214 215
          216 217 218 219 220 221
          222 223 224 225 226 227
          228 229 230 231 232 233
          234 235 236 237 238 239
          240 241 242 243 244 245
          246 247 248 249 250 251
          252 253 254 255 256 257
          258 259 260 261 262 263
          264 265 266 267 268 269
          270 271 272 273 274 275
          276 277 278 279 280 281
          282 283 284 285 286 287
          288 289
        </DataArray>
        <DataArray type="Int64" Name="offsets" format="ascii" RangeMin="1" RangeMax="290">
          1 2 3 4 5 6
          7 8 9 10 11 12
          13 14 15 16 17 18
          19 20 21 22 23 24
          25 26 27 28 29 30
          31 32 33 34 35 36
          37 38 39 40 41 42
          43 44 45 46 47 48
          49 50 51 52 53 54
          55 56 57 58 59 60
          61 62 63 64 65 66
          67 68 69 70 71 72
          73 74 75 76 77 78
          79 80 81 82 83 84
          85 86 87 88 89 90
          91 92 93 94 95 96
          97 98 99 100 101 102
          103 104 105 106 107 108
          109 110 111 112 113 114
          115 116 117 118 119 120
          121 122 123 124 125 126
          127 128 129 130 131 132
          133 134 135 136 137 138
          139 140 141 142 143 144
          145 146 147 148 149 150
          151 152 153 154 155 156
          157 158 159 160 161 162
          163 164 165 166 167 168
          169 170 171 172 173 174
          175 176 177 178 179 180
          181 182 183 184 185 186
          187 188 189 190 191 192
          193 194 195 196 197 198
          199 200 201 202 203 204
          205 206 207 208 209 210
          211 212 213 214 215 216
          217 218 219 220 221 222
          223 224 225 226 227 228
          229 230 231 232 233 234
          235 236 237 238 239 240
          241 242 243 244 245 246
          247 248 249 250 251 252
          253 254 255 256 257 258
          259 260 261 262 263 264
          265 266 267 268 269 270
          271 272 273 274 275 276
          277 278 279 280 281 282
          283 284 285 286 287 288
          289 290
        </DataArray>
        <DataArray type="UInt8" Name="types" format="ascii" RangeMin="1" RangeMax="1">
          1 1 1 1 1 1
          1 1 1 1 1 1
          1 1 1 1 1 1
          1 1 1 1 1 1
          1 1 1 1 1 1
          1 1 1 1 1 1
          1 1 1 1 1 1
          1 1 1 1 1 1
          1 1 1 1 1 1
          1 1 1 1 1 1
          1 1 1 1 1 1
          1 1 1 1 1 1
          1 1 1 1 1 1
          1 1 1 1 1 1
          1 1 1 1 1 1
          1 1 1 1 1 1
          1 1 1 1 1 1
          1 1 1 1 1 1
          1 1 1 1 1 1
          1 1 1 1 1 1
          1 1 1 1 1 1
          1 1 1 1 1 1
          1 1 1 1 1 1
          1 1 1 1 1 1
          1 1 1 1 1 1
          1 1 1 1 1 1
          1 1 1 1 1 1
          1 1 1 1 1 1
          1 1 1 1 1 1
          1 1 1 1 1 1
          1 1 1 1 1 1
          1 1 1 1 1 1
          1 1 1 1 1 1
          1 1 1 1 1 1
          1 1 1 1 1 1
          1 1 1 1 1 1
          1 1 1 1 1 1
          1 1 1 1 1 1
          1 1 1 1 1 1
          1 1 1 1 1 1
          1 1 1 1 1 1
          1 1 1 1 1 1
          1 1 1 1 1 1
          1 1 1 1 1 1
          1 1 1 1 1 1
          1 1 1 1 1 1
          1 1 1 1 1 1
          1 1 1 1 1 1
          1 1
        </DataArray>
      </Cells>
    </Piece>
  </UnstructuredGrid>
</VTKFile>
